<?xml version="1.0"?>
<VTKFile type="UnstructuredGrid" version="1.0" byte_order="LittleEndian" header_type="UInt32" compressor="vtkZLibDataCompressor">
	<UnstructuredGrid>
		<Piece NumberOfPoints="80" NumberOfVerts="0" NumberOfLines="0" NumberOfStrips="0" NumberOfCells="216">
			<PointData />
			<Points>
				<DataArray type="Float32" Name="Points" NumberOfComponents="3" format="ascii" RangeMin="-40" RangeMax="40">-40 -40 -40 -20 -40 -40 0 -40 -40 20 -40 -40 -40 -20 -40 -20 -20 -40 0 -20 -40 20 -20 -40 -40 0 -40 -20 0 -40 0 0 -40 20 0 -40 -40 20 -40 -20 20 -40 0 20 -40 20 20 -40 -40 40 -40 -20 40 -40 0 40 -40 20 40 -40 -40 -40 -20 -20 -40 -20 0 -40 -20 20 -40 -20 -40 -20 -20 -20 -20 -20 0 -20 -20 20 -20 -20 -40 0 -20 -20 0 -20 0 0 -20 20 0 -20 -40 20 -20 -20 20 -20 0 20 -20 20 20 -20 -40 40 -20 -20 40 -20 0 40 -20 20 40 -20 -40 -40 0 -20 -40 0 0 -40 0 20 -40 0 -40 -20 0 -20 -20 0 0 -20 0 20 -20 0 -40 0 0 -20 0 0 0 0 0 20 0 0 -40 20 0 -20 20 0 0 20 0 20 20 0 -40 40 0 -20 40 0 0 40 0 20 40 0 -40 -40 20 -20 -40 20 0 -40 20 20 -40 20 -40 -20 20 -20 -20 20 0 -20 20 20 -20 20 -40 0 20 -20 0 20 0 0 20 20 0 20 -40 20 20 -20 20 20 0 20 20 20 20 20 -40 40 20 -20 40 20 0 40 20 20 40 20 </DataArray>
			</Points>
			<CellData>
				<DataArray type="Float64" Name="octant" format="ascii" RangeMin="0" RangeMax="35">0 0 0 0 0 0 1 1 1 1 1 1 2 2 2 2 2 2 3 3 3 3 3 3 4 4 4 4 4 4 5 5 5 5 5 5 6 6 6 6 6 6 7 7 7 7 7 7 8 8 8 8 8 8 9 9 9 9 9 9 10 10 10 10 10 10 11 11 11 11 11 11 12 12 12 12 12 12 13 13 13 13 13 13 14 14 14 14 14 14 15 15 15 15 15 15 16 16 16 16 16 16 17 17 17 17 17 17 18 18 18 18 18 18 19 19 19 19 19 19 20 20 20 20 20 20 21 21 21 21 21 21 22 22 22 22 22 22 23 23 23 23 23 23 24 24 24 24 24 24 25 25 25 25 25 25 26 26 26 26 26 26 27 27 27 27 27 27 28 28 28 28 28 28 29 29 29 29 29 29 30 30 30 30 30 30 31 31 31 31 31 31 32 32 32 32 32 32 33 33 33 33 33 33 34 34 34 34 34 34 35 35 35 35 35 35 </DataArray>
			</CellData>
			<Cells>
				<DataArray type="Int64" Name="connectivity" format="ascii" RangeMin="0" RangeMax="79">0 1 4 21 1 5 4 21 5 25 4 21 21 25 4 24 21 24 4 20 20 0 4 21 1 2 5 22 2 6 5 22 6 26 5 22 22 26 5 25 22 25 5 21 21 1 5 22 2 3 6 23 3 7 6 23 7 27 6 23 23 27 6 26 23 26 6 22 22 2 6 23 4 5 8 25 5 9 8 25 9 29 8 25 25 29 8 28 25 28 8 24 24 4 8 25 5 6 9 26 6 10 9 26 10 30 9 26 26 30 9 29 26 29 9 25 25 5 9 26 6 7 10 27 7 11 10 27 11 31 10 27 27 31 10 30 27 30 10 26 26 6 10 27 8 9 12 29 9 13 12 29 13 33 12 29 29 33 12 32 29 32 12 28 28 8 12 29 9 10 13 30 10 14 13 30 14 34 13 30 30 34 13 33 30 33 13 29 29 9 13 30 10 11 14 31 11 15 14 31 15 35 14 31 31 35 14 34 31 34 14 30 30 10 14 31 12 13 16 33 13 17 16 33 17 37 16 33 33 37 16 36 33 36 16 32 32 12 16 33 13 14 17 34 14 18 17 34 18 38 17 34 34 38 17 37 34 37 17 33 33 13 17 34 14 15 18 35 15 19 18 35 19 39 18 35 35 39 18 38 35 38 18 34 34 14 18 35 20 21 24 41 21 25 24 41 25 45 24 41 41 45 24 44 41 44 24 40 40 20 24 41 21 22 25 42 22 26 25 42 26 46 25 42 42 46 25 45 42 45 25 41 41 21 25 42 22 23 26 43 23 27 26 43 27 47 26 43 43 47 26 46 43 46 26 42 42 22 26 43 24 25 28 45 25 29 28 45 29 49 28 45 45 49 28 48 45 48 28 44 44 24 28 45 25 26 29 46 26 30 29 46 30 50 29 46 46 50 29 49 46 49 29 45 45 25 29 46 26 27 30 47 27 31 30 47 31 51 30 47 47 51 30 50 47 50 30 46 46 26 30 47 28 29 32 49 29 33 32 49 33 53 32 49 49 53 32 52 49 52 32 48 48 28 32 49 29 30 33 50 30 34 33 50 34 54 33 50 50 54 33 53 50 53 33 49 49 29 33 50 30 31 34 51 31 35 34 51 35 55 34 51 51 55 34 54 51 54 34 50 50 30 34 51 32 33 36 53 33 37 36 53 37 57 36 53 53 57 36 56 53 56 36 52 52 32 36 53 33 34 37 54 34 38 37 54 38 58 37 54 54 58 37 57 54 57 37 53 53 33 37 54 34 35 38 55 35 39 38 55 39 59 38 55 55 59 38 58 55 58 38 54 54 34 38 55 40 41 44 61 41 45 44 61 45 65 44 61 61 65 44 64 61 64 44 60 60 40 44 61 41 42 45 62 42 46 45 62 46 66 45 62 62 66 45 65 62 65 45 61 61 41 45 62 42 43 46 63 43 47 46 63 47 67 46 63 63 67 46 66 63 66 46 62 62 42 46 63 44 45 48 65 45 49 48 65 49 69 48 65 65 69 48 68 65 68 48 64 64 44 48 65 45 46 49 66 46 50 49 66 50 70 49 66 66 70 49 69 66 69 49 65 65 45 49 66 46 47 50 67 47 51 50 67 51 71 50 67 67 71 50 70 67 70 50 66 66 46 50 67 48 49 52 69 49 53 52 69 53 73 52 69 69 73 52 72 69 72 52 68 68 48 52 69 49 50 53 70 50 54 53 70 54 74 53 70 70 74 53 73 70 73 53 69 69 49 53 70 50 51 54 71 51 55 54 71 55 75 54 71 71 75 54 74 71 74 54 70 70 50 54 71 52 53 56 73 53 57 56 73 57 77 56 73 73 77 56 76 73 76 56 72 72 52 56 73 53 54 57 74 54 58 57 74 58 78 57 74 74 78 57 77 74 77 57 73 73 53 57 74 54 55 58 75 55 59 58 75 59 79 58 75 75 79 58 78 75 78 58 74 74 54 58 75 </DataArray>
				<DataArray type="Int64" Name="offsets" format="ascii" RangeMin="0" RangeMax="80">4 8 12 16 20 24 28 32 36 40 44 48 52 56 60 64 68 72 76 80 84 88 92 96 100 104 108 112 116 120 124 128 132 136 140 144 148 152 156 160 164 168 172 176 180 184 188 192 196 200 204 208 212 216 220 224 228 232 236 240 244 248 252 256 260 264 268 272 276 280 284 288 292 296 300 304 308 312 316 320 324 328 332 336 340 344 348 352 356 360 364 368 372 376 380 384 388 392 396 400 404 408 412 416 420 424 428 432 436 440 444 448 452 456 460 464 468 472 476 480 484 488 492 496 500 504 508 512 516 520 524 528 532 536 540 544 548 552 556 560 564 568 572 576 580 584 588 592 596 600 604 608 612 616 620 624 628 632 636 640 644 648 652 656 660 664 668 672 676 680 684 688 692 696 700 704 708 712 716 720 724 728 732 736 740 744 748 752 756 760 764 768 772 776 780 784 788 792 796 800 804 808 812 816 820 824 828 832 836 840 844 848 852 856 860 864 </DataArray>
				<DataArray type="UInt8" Name="types" format="ascii" RangeMin="1" RangeMax="14">10 10 10 10 10 10 10 10 10 10 10 10 10 10 10 10 10 10 10 10 10 10 10 10 10 10 10 10 10 10 10 10 10 10 10 10 10 10 10 10 10 10 10 10 10 10 10 10 10 10 10 10 10 10 10 10 10 10 10 10 10 10 10 10 10 10 10 10 10 10 10 10 10 10 10 10 10 10 10 10 10 10 10 10 10 10 10 10 10 10 10 10 10 10 10 10 10 10 10 10 10 10 10 10 10 10 10 10 10 10 10 10 10 10 10 10 10 10 10 10 10 10 10 10 10 10 10 10 10 10 10 10 10 10 10 10 10 10 10 10 10 10 10 10 10 10 10 10 10 10 10 10 10 10 10 10 10 10 10 10 10 10 10 10 10 10 10 10 10 10 10 10 10 10 10 10 10 10 10 10 10 10 10 10 10 10 10 10 10 10 10 10 10 10 10 10 10 10 10 10 10 10 10 10 10 10 10 10 10 10 10 10 10 10 10 10 </DataArray>
			</Cells>
		</Piece>
	</UnstructuredGrid>
</VTKFile>
